V -t * -v 1.0a5 -a 0
A -t * -n 1 -p 0 -o 0x7fffffff -c 30 -a 1
A -t * -h 1 -m 1073741823 -s 0
n -t * -a 4 -s 4 -S UP -v circle -c black -i black
n -t * -a 0 -s 0 -S UP -v circle -c black -i black
n -t * -a 1 -s 1 -S UP -v circle -c black -i black
n -t * -a 2 -s 2 -S UP -v circle -c black -i black
n -t * -a 3 -s 3 -S UP -v circle -c black -i black
l -t * -s 0 -d 1 -S UP -r 1000000 -D 0.01 -c black
l -t * -s 0 -d 2 -S UP -r 1000000 -D 0.01 -c black
l -t * -s 0 -d 3 -S UP -r 1000000 -D 0.01 -c black
l -t * -s 0 -d 4 -S UP -r 1000000 -D 0.01 -c black
+ -t 0.5 -s 0 -d 1 -p tcp -e 40 -c 0 -i 0 -a 0 -x {0.0 1.0 0 ------- null}
- -t 0.5 -s 0 -d 1 -p tcp -e 40 -c 0 -i 0 -a 0 -x {0.0 1.0 0 ------- null}
h -t 0.5 -s 0 -d 1 -p tcp -e 40 -c 0 -i 0 -a 0 -x {0.0 1.0 -1 ------- null}
+ -t 0.5 -s 0 -d 2 -p tcp -e 40 -c 0 -i 1 -a 0 -x {0.1 2.0 0 ------- null}
- -t 0.5 -s 0 -d 2 -p tcp -e 40 -c 0 -i 1 -a 0 -x {0.1 2.0 0 ------- null}
h -t 0.5 -s 0 -d 2 -p tcp -e 40 -c 0 -i 1 -a 0 -x {0.1 2.0 -1 ------- null}
+ -t 0.5 -s 0 -d 3 -p tcp -e 40 -c 0 -i 2 -a 0 -x {0.2 3.0 0 ------- null}
- -t 0.5 -s 0 -d 3 -p tcp -e 40 -c 0 -i 2 -a 0 -x {0.2 3.0 0 ------- null}
h -t 0.5 -s 0 -d 3 -p tcp -e 40 -c 0 -i 2 -a 0 -x {0.2 3.0 -1 ------- null}
+ -t 0.5 -s 0 -d 4 -p tcp -e 40 -c 0 -i 3 -a 0 -x {0.3 4.0 0 ------- null}
- -t 0.5 -s 0 -d 4 -p tcp -e 40 -c 0 -i 3 -a 0 -x {0.3 4.0 0 ------- null}
h -t 0.5 -s 0 -d 4 -p tcp -e 40 -c 0 -i 3 -a 0 -x {0.3 4.0 -1 ------- null}
r -t 0.51032 -s 0 -d 1 -p tcp -e 40 -c 0 -i 0 -a 0 -x {0.0 1.0 0 ------- null}
+ -t 0.51032 -s 1 -d 0 -p ack -e 40 -c 0 -i 4 -a 0 -x {1.0 0.0 0 ------- null}
- -t 0.51032 -s 1 -d 0 -p ack -e 40 -c 0 -i 4 -a 0 -x {1.0 0.0 0 ------- null}
h -t 0.51032 -s 1 -d 0 -p ack -e 40 -c 0 -i 4 -a 0 -x {1.0 0.0 -1 ------- null}
r -t 0.51032 -s 0 -d 2 -p tcp -e 40 -c 0 -i 1 -a 0 -x {0.1 2.0 0 ------- null}
+ -t 0.51032 -s 2 -d 0 -p ack -e 40 -c 0 -i 5 -a 0 -x {2.0 0.1 0 ------- null}
- -t 0.51032 -s 2 -d 0 -p ack -e 40 -c 0 -i 5 -a 0 -x {2.0 0.1 0 ------- null}
h -t 0.51032 -s 2 -d 0 -p ack -e 40 -c 0 -i 5 -a 0 -x {2.0 0.1 -1 ------- null}
r -t 0.51032 -s 0 -d 3 -p tcp -e 40 -c 0 -i 2 -a 0 -x {0.2 3.0 0 ------- null}
+ -t 0.51032 -s 3 -d 0 -p ack -e 40 -c 0 -i 6 -a 0 -x {3.0 0.2 0 ------- null}
- -t 0.51032 -s 3 -d 0 -p ack -e 40 -c 0 -i 6 -a 0 -x {3.0 0.2 0 ------- null}
h -t 0.51032 -s 3 -d 0 -p ack -e 40 -c 0 -i 6 -a 0 -x {3.0 0.2 -1 ------- null}
r -t 0.51032 -s 0 -d 4 -p tcp -e 40 -c 0 -i 3 -a 0 -x {0.3 4.0 0 ------- null}
+ -t 0.51032 -s 4 -d 0 -p ack -e 40 -c 0 -i 7 -a 0 -x {4.0 0.3 0 ------- null}
- -t 0.51032 -s 4 -d 0 -p ack -e 40 -c 0 -i 7 -a 0 -x {4.0 0.3 0 ------- null}
h -t 0.51032 -s 4 -d 0 -p ack -e 40 -c 0 -i 7 -a 0 -x {4.0 0.3 -1 ------- null}
r -t 0.52064 -s 1 -d 0 -p ack -e 40 -c 0 -i 4 -a 0 -x {1.0 0.0 0 ------- null}
+ -t 0.52064 -s 0 -d 1 -p tcp -e 1040 -c 0 -i 8 -a 0 -x {0.0 1.0 1 ------- null}
- -t 0.52064 -s 0 -d 1 -p tcp -e 1040 -c 0 -i 8 -a 0 -x {0.0 1.0 1 ------- null}
h -t 0.52064 -s 0 -d 1 -p tcp -e 1040 -c 0 -i 8 -a 0 -x {0.0 1.0 -1 ------- null}
+ -t 0.52064 -s 0 -d 1 -p tcp -e 1040 -c 0 -i 9 -a 0 -x {0.0 1.0 2 ------- null}
r -t 0.52064 -s 2 -d 0 -p ack -e 40 -c 0 -i 5 -a 0 -x {2.0 0.1 0 ------- null}
+ -t 0.52064 -s 0 -d 2 -p tcp -e 1040 -c 0 -i 10 -a 0 -x {0.1 2.0 1 ------- null}
- -t 0.52064 -s 0 -d 2 -p tcp -e 1040 -c 0 -i 10 -a 0 -x {0.1 2.0 1 ------- null}
h -t 0.52064 -s 0 -d 2 -p tcp -e 1040 -c 0 -i 10 -a 0 -x {0.1 2.0 -1 ------- null}
+ -t 0.52064 -s 0 -d 2 -p tcp -e 1040 -c 0 -i 11 -a 0 -x {0.1 2.0 2 ------- null}
r -t 0.52064 -s 3 -d 0 -p ack -e 40 -c 0 -i 6 -a 0 -x {3.0 0.2 0 ------- null}
+ -t 0.52064 -s 0 -d 3 -p tcp -e 1040 -c 0 -i 12 -a 0 -x {0.2 3.0 1 ------- null}
- -t 0.52064 -s 0 -d 3 -p tcp -e 1040 -c 0 -i 12 -a 0 -x {0.2 3.0 1 ------- null}
h -t 0.52064 -s 0 -d 3 -p tcp -e 1040 -c 0 -i 12 -a 0 -x {0.2 3.0 -1 ------- null}
+ -t 0.52064 -s 0 -d 3 -p tcp -e 1040 -c 0 -i 13 -a 0 -x {0.2 3.0 2 ------- null}
r -t 0.52064 -s 4 -d 0 -p ack -e 40 -c 0 -i 7 -a 0 -x {4.0 0.3 0 ------- null}
+ -t 0.52064 -s 0 -d 4 -p tcp -e 1040 -c 0 -i 14 -a 0 -x {0.3 4.0 1 ------- null}
- -t 0.52064 -s 0 -d 4 -p tcp -e 1040 -c 0 -i 14 -a 0 -x {0.3 4.0 1 ------- null}
h -t 0.52064 -s 0 -d 4 -p tcp -e 1040 -c 0 -i 14 -a 0 -x {0.3 4.0 -1 ------- null}
+ -t 0.52064 -s 0 -d 4 -p tcp -e 1040 -c 0 -i 15 -a 0 -x {0.3 4.0 2 ------- null}
- -t 0.52896 -s 0 -d 1 -p tcp -e 1040 -c 0 -i 9 -a 0 -x {0.0 1.0 2 ------- null}
h -t 0.52896 -s 0 -d 1 -p tcp -e 1040 -c 0 -i 9 -a 0 -x {0.0 1.0 -1 ------- null}
- -t 0.52896 -s 0 -d 2 -p tcp -e 1040 -c 0 -i 11 -a 0 -x {0.1 2.0 2 ------- null}
h -t 0.52896 -s 0 -d 2 -p tcp -e 1040 -c 0 -i 11 -a 0 -x {0.1 2.0 -1 ------- null}
- -t 0.52896 -s 0 -d 3 -p tcp -e 1040 -c 0 -i 13 -a 0 -x {0.2 3.0 2 ------- null}
h -t 0.52896 -s 0 -d 3 -p tcp -e 1040 -c 0 -i 13 -a 0 -x {0.2 3.0 -1 ------- null}
- -t 0.52896 -s 0 -d 4 -p tcp -e 1040 -c 0 -i 15 -a 0 -x {0.3 4.0 2 ------- null}
h -t 0.52896 -s 0 -d 4 -p tcp -e 1040 -c 0 -i 15 -a 0 -x {0.3 4.0 -1 ------- null}
r -t 0.53896 -s 0 -d 1 -p tcp -e 1040 -c 0 -i 8 -a 0 -x {0.0 1.0 1 ------- null}
+ -t 0.53896 -s 1 -d 0 -p ack -e 40 -c 0 -i 16 -a 0 -x {1.0 0.0 1 ------- null}
- -t 0.53896 -s 1 -d 0 -p ack -e 40 -c 0 -i 16 -a 0 -x {1.0 0.0 1 ------- null}
h -t 0.53896 -s 1 -d 0 -p ack -e 40 -c 0 -i 16 -a 0 -x {1.0 0.0 -1 ------- null}
r -t 0.53896 -s 0 -d 2 -p tcp -e 1040 -c 0 -i 10 -a 0 -x {0.1 2.0 1 ------- null}
+ -t 0.53896 -s 2 -d 0 -p ack -e 40 -c 0 -i 17 -a 0 -x {2.0 0.1 1 ------- null}
- -t 0.53896 -s 2 -d 0 -p ack -e 40 -c 0 -i 17 -a 0 -x {2.0 0.1 1 ------- null}
h -t 0.53896 -s 2 -d 0 -p ack -e 40 -c 0 -i 17 -a 0 -x {2.0 0.1 -1 ------- null}
r -t 0.53896 -s 0 -d 3 -p tcp -e 1040 -c 0 -i 12 -a 0 -x {0.2 3.0 1 ------- null}
+ -t 0.53896 -s 3 -d 0 -p ack -e 40 -c 0 -i 18 -a 0 -x {3.0 0.2 1 ------- null}
- -t 0.53896 -s 3 -d 0 -p ack -e 40 -c 0 -i 18 -a 0 -x {3.0 0.2 1 ------- null}
h -t 0.53896 -s 3 -d 0 -p ack -e 40 -c 0 -i 18 -a 0 -x {3.0 0.2 -1 ------- null}
r -t 0.53896 -s 0 -d 4 -p tcp -e 1040 -c 0 -i 14 -a 0 -x {0.3 4.0 1 ------- null}
+ -t 0.53896 -s 4 -d 0 -p ack -e 40 -c 0 -i 19 -a 0 -x {4.0 0.3 1 ------- null}
- -t 0.53896 -s 4 -d 0 -p ack -e 40 -c 0 -i 19 -a 0 -x {4.0 0.3 1 ------- null}
h -t 0.53896 -s 4 -d 0 -p ack -e 40 -c 0 -i 19 -a 0 -x {4.0 0.3 -1 ------- null}
r -t 0.54728 -s 0 -d 1 -p tcp -e 1040 -c 0 -i 9 -a 0 -x {0.0 1.0 2 ------- null}
+ -t 0.54728 -s 1 -d 0 -p ack -e 40 -c 0 -i 20 -a 0 -x {1.0 0.0 2 ------- null}
- -t 0.54728 -s 1 -d 0 -p ack -e 40 -c 0 -i 20 -a 0 -x {1.0 0.0 2 ------- null}
h -t 0.54728 -s 1 -d 0 -p ack -e 40 -c 0 -i 20 -a 0 -x {1.0 0.0 -1 ------- null}
r -t 0.54728 -s 0 -d 2 -p tcp -e 1040 -c 0 -i 11 -a 0 -x {0.1 2.0 2 ------- null}
+ -t 0.54728 -s 2 -d 0 -p ack -e 40 -c 0 -i 21 -a 0 -x {2.0 0.1 2 ------- null}
- -t 0.54728 -s 2 -d 0 -p ack -e 40 -c 0 -i 21 -a 0 -x {2.0 0.1 2 ------- null}
h -t 0.54728 -s 2 -d 0 -p ack -e 40 -c 0 -i 21 -a 0 -x {2.0 0.1 -1 ------- null}
r -t 0.54728 -s 0 -d 3 -p tcp -e 1040 -c 0 -i 13 -a 0 -x {0.2 3.0 2 ------- null}
+ -t 0.54728 -s 3 -d 0 -p ack -e 40 -c 0 -i 22 -a 0 -x {3.0 0.2 2 ------- null}
- -t 0.54728 -s 3 -d 0 -p ack -e 40 -c 0 -i 22 -a 0 -x {3.0 0.2 2 ------- null}
h -t 0.54728 -s 3 -d 0 -p ack -e 40 -c 0 -i 22 -a 0 -x {3.0 0.2 -1 ------- null}
r -t 0.54728 -s 0 -d 4 -p tcp -e 1040 -c 0 -i 15 -a 0 -x {0.3 4.0 2 ------- null}
+ -t 0.54728 -s 4 -d 0 -p ack -e 40 -c 0 -i 23 -a 0 -x {4.0 0.3 2 ------- null}
- -t 0.54728 -s 4 -d 0 -p ack -e 40 -c 0 -i 23 -a 0 -x {4.0 0.3 2 ------- null}
h -t 0.54728 -s 4 -d 0 -p ack -e 40 -c 0 -i 23 -a 0 -x {4.0 0.3 -1 ------- null}
r -t 0.54928 -s 1 -d 0 -p ack -e 40 -c 0 -i 16 -a 0 -x {1.0 0.0 1 ------- null}
+ -t 0.54928 -s 0 -d 1 -p tcp -e 1040 -c 0 -i 24 -a 0 -x {0.0 1.0 3 ------- null}
- -t 0.54928 -s 0 -d 1 -p tcp -e 1040 -c 0 -i 24 -a 0 -x {0.0 1.0 3 ------- null}
h -t 0.54928 -s 0 -d 1 -p tcp -e 1040 -c 0 -i 24 -a 0 -x {0.0 1.0 -1 ------- null}
+ -t 0.54928 -s 0 -d 1 -p tcp -e 1040 -c 0 -i 25 -a 0 -x {0.0 1.0 4 ------- null}
r -t 0.54928 -s 2 -d 0 -p ack -e 40 -c 0 -i 17 -a 0 -x {2.0 0.1 1 ------- null}
+ -t 0.54928 -s 0 -d 2 -p tcp -e 1040 -c 0 -i 26 -a 0 -x {0.1 2.0 3 ------- null}
- -t 0.54928 -s 0 -d 2 -p tcp -e 1040 -c 0 -i 26 -a 0 -x {0.1 2.0 3 ------- null}
h -t 0.54928 -s 0 -d 2 -p tcp -e 1040 -c 0 -i 26 -a 0 -x {0.1 2.0 -1 ------- null}
+ -t 0.54928 -s 0 -d 2 -p tcp -e 1040 -c 0 -i 27 -a 0 -x {0.1 2.0 4 ------- null}
r -t 0.54928 -s 3 -d 0 -p ack -e 40 -c 0 -i 18 -a 0 -x {3.0 0.2 1 ------- null}
+ -t 0.54928 -s 0 -d 3 -p tcp -e 1040 -c 0 -i 28 -a 0 -x {0.2 3.0 3 ------- null}
- -t 0.54928 -s 0 -d 3 -p tcp -e 1040 -c 0 -i 28 -a 0 -x {0.2 3.0 3 ------- null}
h -t 0.54928 -s 0 -d 3 -p tcp -e 1040 -c 0 -i 28 -a 0 -x {0.2 3.0 -1 ------- null}
+ -t 0.54928 -s 0 -d 3 -p tcp -e 1040 -c 0 -i 29 -a 0 -x {0.2 3.0 4 ------- null}
r -t 0.54928 -s 4 -d 0 -p ack -e 40 -c 0 -i 19 -a 0 -x {4.0 0.3 1 ------- null}
+ -t 0.54928 -s 0 -d 4 -p tcp -e 1040 -c 0 -i 30 -a 0 -x {0.3 4.0 3 ------- null}
- -t 0.54928 -s 0 -d 4 -p tcp -e 1040 -c 0 -i 30 -a 0 -x {0.3 4.0 3 ------- null}
h -t 0.54928 -s 0 -d 4 -p tcp -e 1040 -c 0 -i 30 -a 0 -x {0.3 4.0 -1 ------- null}
+ -t 0.54928 -s 0 -d 4 -p tcp -e 1040 -c 0 -i 31 -a 0 -x {0.3 4.0 4 ------- null}
r -t 0.5576 -s 1 -d 0 -p ack -e 40 -c 0 -i 20 -a 0 -x {1.0 0.0 2 ------- null}
+ -t 0.5576 -s 0 -d 1 -p tcp -e 1040 -c 0 -i 32 -a 0 -x {0.0 1.0 5 ------- null}
+ -t 0.5576 -s 0 -d 1 -p tcp -e 1040 -c 0 -i 33 -a 0 -x {0.0 1.0 6 ------- null}
r -t 0.5576 -s 2 -d 0 -p ack -e 40 -c 0 -i 21 -a 0 -x {2.0 0.1 2 ------- null}
+ -t 0.5576 -s 0 -d 2 -p tcp -e 1040 -c 0 -i 34 -a 0 -x {0.1 2.0 5 ------- null}
+ -t 0.5576 -s 0 -d 2 -p tcp -e 1040 -c 0 -i 35 -a 0 -x {0.1 2.0 6 ------- null}
r -t 0.5576 -s 3 -d 0 -p ack -e 40 -c 0 -i 22 -a 0 -x {3.0 0.2 2 ------- null}
+ -t 0.5576 -s 0 -d 3 -p tcp -e 1040 -c 0 -i 36 -a 0 -x {0.2 3.0 5 ------- null}
+ -t 0.5576 -s 0 -d 3 -p tcp -e 1040 -c 0 -i 37 -a 0 -x {0.2 3.0 6 ------- null}
r -t 0.5576 -s 4 -d 0 -p ack -e 40 -c 0 -i 23 -a 0 -x {4.0 0.3 2 ------- null}
+ -t 0.5576 -s 0 -d 4 -p tcp -e 1040 -c 0 -i 38 -a 0 -x {0.3 4.0 5 ------- null}
+ -t 0.5576 -s 0 -d 4 -p tcp -e 1040 -c 0 -i 39 -a 0 -x {0.3 4.0 6 ------- null}
- -t 0.5576 -s 0 -d 1 -p tcp -e 1040 -c 0 -i 25 -a 0 -x {0.0 1.0 4 ------- null}
h -t 0.5576 -s 0 -d 1 -p tcp -e 1040 -c 0 -i 25 -a 0 -x {0.0 1.0 -1 ------- null}
- -t 0.5576 -s 0 -d 2 -p tcp -e 1040 -c 0 -i 27 -a 0 -x {0.1 2.0 4 ------- null}
h -t 0.5576 -s 0 -d 2 -p tcp -e 1040 -c 0 -i 27 -a 0 -x {0.1 2.0 -1 ------- null}
- -t 0.5576 -s 0 -d 3 -p tcp -e 1040 -c 0 -i 29 -a 0 -x {0.2 3.0 4 ------- null}
h -t 0.5576 -s 0 -d 3 -p tcp -e 1040 -c 0 -i 29 -a 0 -x {0.2 3.0 -1 ------- null}
- -t 0.5576 -s 0 -d 4 -p tcp -e 1040 -c 0 -i 31 -a 0 -x {0.3 4.0 4 ------- null}
h -t 0.5576 -s 0 -d 4 -p tcp -e 1040 -c 0 -i 31 -a 0 -x {0.3 4.0 -1 ------- null}
- -t 0.56592 -s 0 -d 1 -p tcp -e 1040 -c 0 -i 32 -a 0 -x {0.0 1.0 5 ------- null}
h -t 0.56592 -s 0 -d 1 -p tcp -e 1040 -c 0 -i 32 -a 0 -x {0.0 1.0 -1 ------- null}
- -t 0.56592 -s 0 -d 2 -p tcp -e 1040 -c 0 -i 34 -a 0 -x {0.1 2.0 5 ------- null}
h -t 0.56592 -s 0 -d 2 -p tcp -e 1040 -c 0 -i 34 -a 0 -x {0.1 2.0 -1 ------- null}
- -t 0.56592 -s 0 -d 3 -p tcp -e 1040 -c 0 -i 36 -a 0 -x {0.2 3.0 5 ------- null}
h -t 0.56592 -s 0 -d 3 -p tcp -e 1040 -c 0 -i 36 -a 0 -x {0.2 3.0 -1 ------- null}
- -t 0.56592 -s 0 -d 4 -p tcp -e 1040 -c 0 -i 38 -a 0 -x {0.3 4.0 5 ------- null}
h -t 0.56592 -s 0 -d 4 -p tcp -e 1040 -c 0 -i 38 -a 0 -x {0.3 4.0 -1 ------- null}
r -t 0.5676 -s 0 -d 1 -p tcp -e 1040 -c 0 -i 24 -a 0 -x {0.0 1.0 3 ------- null}
+ -t 0.5676 -s 1 -d 0 -p ack -e 40 -c 0 -i 40 -a 0 -x {1.0 0.0 3 ------- null}
- -t 0.5676 -s 1 -d 0 -p ack -e 40 -c 0 -i 40 -a 0 -x {1.0 0.0 3 ------- null}
h -t 0.5676 -s 1 -d 0 -p ack -e 40 -c 0 -i 40 -a 0 -x {1.0 0.0 -1 ------- null}
r -t 0.5676 -s 0 -d 2 -p tcp -e 1040 -c 0 -i 26 -a 0 -x {0.1 2.0 3 ------- null}
+ -t 0.5676 -s 2 -d 0 -p ack -e 40 -c 0 -i 41 -a 0 -x {2.0 0.1 3 ------- null}
- -t 0.5676 -s 2 -d 0 -p ack -e 40 -c 0 -i 41 -a 0 -x {2.0 0.1 3 ------- null}
h -t 0.5676 -s 2 -d 0 -p ack -e 40 -c 0 -i 41 -a 0 -x {2.0 0.1 -1 ------- null}
r -t 0.5676 -s 0 -d 3 -p tcp -e 1040 -c 0 -i 28 -a 0 -x {0.2 3.0 3 ------- null}
+ -t 0.5676 -s 3 -d 0 -p ack -e 40 -c 0 -i 42 -a 0 -x {3.0 0.2 3 ------- null}
- -t 0.5676 -s 3 -d 0 -p ack -e 40 -c 0 -i 42 -a 0 -x {3.0 0.2 3 ------- null}
h -t 0.5676 -s 3 -d 0 -p ack -e 40 -c 0 -i 42 -a 0 -x {3.0 0.2 -1 ------- null}
r -t 0.5676 -s 0 -d 4 -p tcp -e 1040 -c 0 -i 30 -a 0 -x {0.3 4.0 3 ------- null}
+ -t 0.5676 -s 4 -d 0 -p ack -e 40 -c 0 -i 43 -a 0 -x {4.0 0.3 3 ------- null}
- -t 0.5676 -s 4 -d 0 -p ack -e 40 -c 0 -i 43 -a 0 -x {4.0 0.3 3 ------- null}
h -t 0.5676 -s 4 -d 0 -p ack -e 40 -c 0 -i 43 -a 0 -x {4.0 0.3 -1 ------- null}
- -t 0.57424 -s 0 -d 1 -p tcp -e 1040 -c 0 -i 33 -a 0 -x {0.0 1.0 6 ------- null}
h -t 0.57424 -s 0 -d 1 -p tcp -e 1040 -c 0 -i 33 -a 0 -x {0.0 1.0 -1 ------- null}
- -t 0.57424 -s 0 -d 2 -p tcp -e 1040 -c 0 -i 35 -a 0 -x {0.1 2.0 6 ------- null}
h -t 0.57424 -s 0 -d 2 -p tcp -e 1040 -c 0 -i 35 -a 0 -x {0.1 2.0 -1 ------- null}
- -t 0.57424 -s 0 -d 3 -p tcp -e 1040 -c 0 -i 37 -a 0 -x {0.2 3.0 6 ------- null}
h -t 0.57424 -s 0 -d 3 -p tcp -e 1040 -c 0 -i 37 -a 0 -x {0.2 3.0 -1 ------- null}
- -t 0.57424 -s 0 -d 4 -p tcp -e 1040 -c 0 -i 39 -a 0 -x {0.3 4.0 6 ------- null}
h -t 0.57424 -s 0 -d 4 -p tcp -e 1040 -c 0 -i 39 -a 0 -x {0.3 4.0 -1 ------- null}
r -t 0.57592 -s 0 -d 1 -p tcp -e 1040 -c 0 -i 25 -a 0 -x {0.0 1.0 4 ------- null}
+ -t 0.57592 -s 1 -d 0 -p ack -e 40 -c 0 -i 44 -a 0 -x {1.0 0.0 4 ------- null}
- -t 0.57592 -s 1 -d 0 -p ack -e 40 -c 0 -i 44 -a 0 -x {1.0 0.0 4 ------- null}
h -t 0.57592 -s 1 -d 0 -p ack -e 40 -c 0 -i 44 -a 0 -x {1.0 0.0 -1 ------- null}
r -t 0.57592 -s 0 -d 2 -p tcp -e 1040 -c 0 -i 27 -a 0 -x {0.1 2.0 4 ------- null}
+ -t 0.57592 -s 2 -d 0 -p ack -e 40 -c 0 -i 45 -a 0 -x {2.0 0.1 4 ------- null}
- -t 0.57592 -s 2 -d 0 -p ack -e 40 -c 0 -i 45 -a 0 -x {2.0 0.1 4 ------- null}
h -t 0.57592 -s 2 -d 0 -p ack -e 40 -c 0 -i 45 -a 0 -x {2.0 0.1 -1 ------- null}
r -t 0.57592 -s 0 -d 3 -p tcp -e 1040 -c 0 -i 29 -a 0 -x {0.2 3.0 4 ------- null}
+ -t 0.57592 -s 3 -d 0 -p ack -e 40 -c 0 -i 46 -a 0 -x {3.0 0.2 4 ------- null}
- -t 0.57592 -s 3 -d 0 -p ack -e 40 -c 0 -i 46 -a 0 -x {3.0 0.2 4 ------- null}
h -t 0.57592 -s 3 -d 0 -p ack -e 40 -c 0 -i 46 -a 0 -x {3.0 0.2 -1 ------- null}
r -t 0.57592 -s 0 -d 4 -p tcp -e 1040 -c 0 -i 31 -a 0 -x {0.3 4.0 4 ------- null}
+ -t 0.57592 -s 4 -d 0 -p ack -e 40 -c 0 -i 47 -a 0 -x {4.0 0.3 4 ------- null}
- -t 0.57592 -s 4 -d 0 -p ack -e 40 -c 0 -i 47 -a 0 -x {4.0 0.3 4 ------- null}
h -t 0.57592 -s 4 -d 0 -p ack -e 40 -c 0 -i 47 -a 0 -x {4.0 0.3 -1 ------- null}
r -t 0.57792 -s 1 -d 0 -p ack -e 40 -c 0 -i 40 -a 0 -x {1.0 0.0 3 ------- null}
+ -t 0.57792 -s 0 -d 1 -p tcp -e 1040 -c 0 -i 48 -a 0 -x {0.0 1.0 7 ------- null}
+ -t 0.57792 -s 0 -d 1 -p tcp -e 1040 -c 0 -i 49 -a 0 -x {0.0 1.0 8 ------- null}
r -t 0.57792 -s 2 -d 0 -p ack -e 40 -c 0 -i 41 -a 0 -x {2.0 0.1 3 ------- null}
+ -t 0.57792 -s 0 -d 2 -p tcp -e 1040 -c 0 -i 50 -a 0 -x {0.1 2.0 7 ------- null}
+ -t 0.57792 -s 0 -d 2 -p tcp -e 1040 -c 0 -i 51 -a 0 -x {0.1 2.0 8 ------- null}
r -t 0.57792 -s 3 -d 0 -p ack -e 40 -c 0 -i 42 -a 0 -x {3.0 0.2 3 ------- null}
+ -t 0.57792 -s 0 -d 3 -p tcp -e 1040 -c 0 -i 52 -a 0 -x {0.2 3.0 7 ------- null}
+ -t 0.57792 -s 0 -d 3 -p tcp -e 1040 -c 0 -i 53 -a 0 -x {0.2 3.0 8 ------- null}
r -t 0.57792 -s 4 -d 0 -p ack -e 40 -c 0 -i 43 -a 0 -x {4.0 0.3 3 ------- null}
+ -t 0.57792 -s 0 -d 4 -p tcp -e 1040 -c 0 -i 54 -a 0 -x {0.3 4.0 7 ------- null}
+ -t 0.57792 -s 0 -d 4 -p tcp -e 1040 -c 0 -i 55 -a 0 -x {0.3 4.0 8 ------- null}
- -t 0.58256 -s 0 -d 1 -p tcp -e 1040 -c 0 -i 48 -a 0 -x {0.0 1.0 7 ------- null}
h -t 0.58256 -s 0 -d 1 -p tcp -e 1040 -c 0 -i 48 -a 0 -x {0.0 1.0 -1 ------- null}
- -t 0.58256 -s 0 -d 2 -p tcp -e 1040 -c 0 -i 50 -a 0 -x {0.1 2.0 7 ------- null}
h -t 0.58256 -s 0 -d 2 -p tcp -e 1040 -c 0 -i 50 -a 0 -x {0.1 2.0 -1 ------- null}
- -t 0.58256 -s 0 -d 3 -p tcp -e 1040 -c 0 -i 52 -a 0 -x {0.2 3.0 7 ------- null}
h -t 0.58256 -s 0 -d 3 -p tcp -e 1040 -c 0 -i 52 -a 0 -x {0.2 3.0 -1 ------- null}
- -t 0.58256 -s 0 -d 4 -p tcp -e 1040 -c 0 -i 54 -a 0 -x {0.3 4.0 7 ------- null}
h -t 0.58256 -s 0 -d 4 -p tcp -e 1040 -c 0 -i 54 -a 0 -x {0.3 4.0 -1 ------- null}
r -t 0.58424 -s 0 -d 1 -p tcp -e 1040 -c 0 -i 32 -a 0 -x {0.0 1.0 5 ------- null}
+ -t 0.58424 -s 1 -d 0 -p ack -e 40 -c 0 -i 56 -a 0 -x {1.0 0.0 5 ------- null}
- -t 0.58424 -s 1 -d 0 -p ack -e 40 -c 0 -i 56 -a 0 -x {1.0 0.0 5 ------- null}
h -t 0.58424 -s 1 -d 0 -p ack -e 40 -c 0 -i 56 -a 0 -x {1.0 0.0 -1 ------- null}
r -t 0.58424 -s 0 -d 2 -p tcp -e 1040 -c 0 -i 34 -a 0 -x {0.1 2.0 5 ------- null}
+ -t 0.58424 -s 2 -d 0 -p ack -e 40 -c 0 -i 57 -a 0 -x {2.0 0.1 5 ------- null}
- -t 0.58424 -s 2 -d 0 -p ack -e 40 -c 0 -i 57 -a 0 -x {2.0 0.1 5 ------- null}
h -t 0.58424 -s 2 -d 0 -p ack -e 40 -c 0 -i 57 -a 0 -x {2.0 0.1 -1 ------- null}
r -t 0.58424 -s 0 -d 3 -p tcp -e 1040 -c 0 -i 36 -a 0 -x {0.2 3.0 5 ------- null}
+ -t 0.58424 -s 3 -d 0 -p ack -e 40 -c 0 -i 58 -a 0 -x {3.0 0.2 5 ------- null}
- -t 0.58424 -s 3 -d 0 -p ack -e 40 -c 0 -i 58 -a 0 -x {3.0 0.2 5 ------- null}
h -t 0.58424 -s 3 -d 0 -p ack -e 40 -c 0 -i 58 -a 0 -x {3.0 0.2 -1 ------- null}
r -t 0.58424 -s 0 -d 4 -p tcp -e 1040 -c 0 -i 38 -a 0 -x {0.3 4.0 5 ------- null}
+ -t 0.58424 -s 4 -d 0 -p ack -e 40 -c 0 -i 59 -a 0 -x {4.0 0.3 5 ------- null}
- -t 0.58424 -s 4 -d 0 -p ack -e 40 -c 0 -i 59 -a 0 -x {4.0 0.3 5 ------- null}
h -t 0.58424 -s 4 -d 0 -p ack -e 40 -c 0 -i 59 -a 0 -x {4.0 0.3 -1 ------- null}
r -t 0.58624 -s 1 -d 0 -p ack -e 40 -c 0 -i 44 -a 0 -x {1.0 0.0 4 ------- null}
+ -t 0.58624 -s 0 -d 1 -p tcp -e 1040 -c 0 -i 60 -a 0 -x {0.0 1.0 9 ------- null}
+ -t 0.58624 -s 0 -d 1 -p tcp -e 1040 -c 0 -i 61 -a 0 -x {0.0 1.0 10 ------- null}
r -t 0.58624 -s 2 -d 0 -p ack -e 40 -c 0 -i 45 -a 0 -x {2.0 0.1 4 ------- null}
+ -t 0.58624 -s 0 -d 2 -p tcp -e 1040 -c 0 -i 62 -a 0 -x {0.1 2.0 9 ------- null}
+ -t 0.58624 -s 0 -d 2 -p tcp -e 1040 -c 0 -i 63 -a 0 -x {0.1 2.0 10 ------- null}
r -t 0.58624 -s 3 -d 0 -p ack -e 40 -c 0 -i 46 -a 0 -x {3.0 0.2 4 ------- null}
+ -t 0.58624 -s 0 -d 3 -p tcp -e 1040 -c 0 -i 64 -a 0 -x {0.2 3.0 9 ------- null}
+ -t 0.58624 -s 0 -d 3 -p tcp -e 1040 -c 0 -i 65 -a 0 -x {0.2 3.0 10 ------- null}
r -t 0.58624 -s 4 -d 0 -p ack -e 40 -c 0 -i 47 -a 0 -x {4.0 0.3 4 ------- null}
+ -t 0.58624 -s 0 -d 4 -p tcp -e 1040 -c 0 -i 66 -a 0 -x {0.3 4.0 9 ------- null}
+ -t 0.58624 -s 0 -d 4 -p tcp -e 1040 -c 0 -i 67 -a 0 -x {0.3 4.0 10 ------- null}
- -t 0.59088 -s 0 -d 1 -p tcp -e 1040 -c 0 -i 49 -a 0 -x {0.0 1.0 8 ------- null}
h -t 0.59088 -s 0 -d 1 -p tcp -e 1040 -c 0 -i 49 -a 0 -x {0.0 1.0 -1 ------- null}
- -t 0.59088 -s 0 -d 2 -p tcp -e 1040 -c 0 -i 51 -a 0 -x {0.1 2.0 8 ------- null}
h -t 0.59088 -s 0 -d 2 -p tcp -e 1040 -c 0 -i 51 -a 0 -x {0.1 2.0 -1 ------- null}
- -t 0.59088 -s 0 -d 3 -p tcp -e 1040 -c 0 -i 53 -a 0 -x {0.2 3.0 8 ------- null}
h -t 0.59088 -s 0 -d 3 -p tcp -e 1040 -c 0 -i 53 -a 0 -x {0.2 3.0 -1 ------- null}
- -t 0.59088 -s 0 -d 4 -p tcp -e 1040 -c 0 -i 55 -a 0 -x {0.3 4.0 8 ------- null}
h -t 0.59088 -s 0 -d 4 -p tcp -e 1040 -c 0 -i 55 -a 0 -x {0.3 4.0 -1 ------- null}
r -t 0.59256 -s 0 -d 1 -p tcp -e 1040 -c 0 -i 33 -a 0 -x {0.0 1.0 6 ------- null}
+ -t 0.59256 -s 1 -d 0 -p ack -e 40 -c 0 -i 68 -a 0 -x {1.0 0.0 6 ------- null}
- -t 0.59256 -s 1 -d 0 -p ack -e 40 -c 0 -i 68 -a 0 -x {1.0 0.0 6 ------- null}
h -t 0.59256 -s 1 -d 0 -p ack -e 40 -c 0 -i 68 -a 0 -x {1.0 0.0 -1 ------- null}
r -t 0.59256 -s 0 -d 2 -p tcp -e 1040 -c 0 -i 35 -a 0 -x {0.1 2.0 6 ------- null}
+ -t 0.59256 -s 2 -d 0 -p ack -e 40 -c 0 -i 69 -a 0 -x {2.0 0.1 6 ------- null}
- -t 0.59256 -s 2 -d 0 -p ack -e 40 -c 0 -i 69 -a 0 -x {2.0 0.1 6 ------- null}
h -t 0.59256 -s 2 -d 0 -p ack -e 40 -c 0 -i 69 -a 0 -x {2.0 0.1 -1 ------- null}
r -t 0.59256 -s 0 -d 3 -p tcp -e 1040 -c 0 -i 37 -a 0 -x {0.2 3.0 6 ------- null}
+ -t 0.59256 -s 3 -d 0 -p ack -e 40 -c 0 -i 70 -a 0 -x {3.0 0.2 6 ------- null}
- -t 0.59256 -s 3 -d 0 -p ack -e 40 -c 0 -i 70 -a 0 -x {3.0 0.2 6 ------- null}
h -t 0.59256 -s 3 -d 0 -p ack -e 40 -c 0 -i 70 -a 0 -x {3.0 0.2 -1 ------- null}
r -t 0.59256 -s 0 -d 4 -p tcp -e 1040 -c 0 -i 39 -a 0 -x {0.3 4.0 6 ------- null}
+ -t 0.59256 -s 4 -d 0 -p ack -e 40 -c 0 -i 71 -a 0 -x {4.0 0.3 6 ------- null}
- -t 0.59256 -s 4 -d 0 -p ack -e 40 -c 0 -i 71 -a 0 -x {4.0 0.3 6 ------- null}
h -t 0.59256 -s 4 -d 0 -p ack -e 40 -c 0 -i 71 -a 0 -x {4.0 0.3 -1 ------- null}
r -t 0.59456 -s 1 -d 0 -p ack -e 40 -c 0 -i 56 -a 0 -x {1.0 0.0 5 ------- null}
+ -t 0.59456 -s 0 -d 1 -p tcp -e 1040 -c 0 -i 72 -a 0 -x {0.0 1.0 11 ------- null}
+ -t 0.59456 -s 0 -d 1 -p tcp -e 1040 -c 0 -i 73 -a 0 -x {0.0 1.0 12 ------- null}
r -t 0.59456 -s 2 -d 0 -p ack -e 40 -c 0 -i 57 -a 0 -x {2.0 0.1 5 ------- null}
+ -t 0.59456 -s 0 -d 2 -p tcp -e 1040 -c 0 -i 74 -a 0 -x {0.1 2.0 11 ------- null}
+ -t 0.59456 -s 0 -d 2 -p tcp -e 1040 -c 0 -i 75 -a 0 -x {0.1 2.0 12 ------- null}
r -t 0.59456 -s 3 -d 0 -p ack -e 40 -c 0 -i 58 -a 0 -x {3.0 0.2 5 ------- null}
+ -t 0.59456 -s 0 -d 3 -p tcp -e 1040 -c 0 -i 76 -a 0 -x {0.2 3.0 11 ------- null}
+ -t 0.59456 -s 0 -d 3 -p tcp -e 1040 -c 0 -i 77 -a 0 -x {0.2 3.0 12 ------- null}
r -t 0.59456 -s 4 -d 0 -p ack -e 40 -c 0 -i 59 -a 0 -x {4.0 0.3 5 ------- null}
+ -t 0.59456 -s 0 -d 4 -p tcp -e 1040 -c 0 -i 78 -a 0 -x {0.3 4.0 11 ------- null}
+ -t 0.59456 -s 0 -d 4 -p tcp -e 1040 -c 0 -i 79 -a 0 -x {0.3 4.0 12 ------- null}
- -t 0.5992 -s 0 -d 1 -p tcp -e 1040 -c 0 -i 60 -a 0 -x {0.0 1.0 9 ------- null}
h -t 0.5992 -s 0 -d 1 -p tcp -e 1040 -c 0 -i 60 -a 0 -x {0.0 1.0 -1 ------- null}
- -t 0.5992 -s 0 -d 2 -p tcp -e 1040 -c 0 -i 62 -a 0 -x {0.1 2.0 9 ------- null}
h -t 0.5992 -s 0 -d 2 -p tcp -e 1040 -c 0 -i 62 -a 0 -x {0.1 2.0 -1 ------- null}
- -t 0.5992 -s 0 -d 3 -p tcp -e 1040 -c 0 -i 64 -a 0 -x {0.2 3.0 9 ------- null}
h -t 0.5992 -s 0 -d 3 -p tcp -e 1040 -c 0 -i 64 -a 0 -x {0.2 3.0 -1 ------- null}
- -t 0.5992 -s 0 -d 4 -p tcp -e 1040 -c 0 -i 66 -a 0 -x {0.3 4.0 9 ------- null}
h -t 0.5992 -s 0 -d 4 -p tcp -e 1040 -c 0 -i 66 -a 0 -x {0.3 4.0 -1 ------- null}
r -t 0.60088 -s 0 -d 1 -p tcp -e 1040 -c 0 -i 48 -a 0 -x {0.0 1.0 7 ------- null}
+ -t 0.60088 -s 1 -d 0 -p ack -e 40 -c 0 -i 80 -a 0 -x {1.0 0.0 7 ------- null}
- -t 0.60088 -s 1 -d 0 -p ack -e 40 -c 0 -i 80 -a 0 -x {1.0 0.0 7 ------- null}
h -t 0.60088 -s 1 -d 0 -p ack -e 40 -c 0 -i 80 -a 0 -x {1.0 0.0 -1 ------- null}
r -t 0.60088 -s 0 -d 2 -p tcp -e 1040 -c 0 -i 50 -a 0 -x {0.1 2.0 7 ------- null}
+ -t 0.60088 -s 2 -d 0 -p ack -e 40 -c 0 -i 81 -a 0 -x {2.0 0.1 7 ------- null}
- -t 0.60088 -s 2 -d 0 -p ack -e 40 -c 0 -i 81 -a 0 -x {2.0 0.1 7 ------- null}
h -t 0.60088 -s 2 -d 0 -p ack -e 40 -c 0 -i 81 -a 0 -x {2.0 0.1 -1 ------- null}
r -t 0.60088 -s 0 -d 3 -p tcp -e 1040 -c 0 -i 52 -a 0 -x {0.2 3.0 7 ------- null}
+ -t 0.60088 -s 3 -d 0 -p ack -e 40 -c 0 -i 82 -a 0 -x {3.0 0.2 7 ------- null}
- -t 0.60088 -s 3 -d 0 -p ack -e 40 -c 0 -i 82 -a 0 -x {3.0 0.2 7 ------- null}
h -t 0.60088 -s 3 -d 0 -p ack -e 40 -c 0 -i 82 -a 0 -x {3.0 0.2 -1 ------- null}
r -t 0.60088 -s 0 -d 4 -p tcp -e 1040 -c 0 -i 54 -a 0 -x {0.3 4.0 7 ------- null}
+ -t 0.60088 -s 4 -d 0 -p ack -e 40 -c 0 -i 83 -a 0 -x {4.0 0.3 7 ------- null}
- -t 0.60088 -s 4 -d 0 -p ack -e 40 -c 0 -i 83 -a 0 -x {4.0 0.3 7 ------- null}
h -t 0.60088 -s 4 -d 0 -p ack -e 40 -c 0 -i 83 -a 0 -x {4.0 0.3 -1 ------- null}
r -t 0.60288 -s 1 -d 0 -p ack -e 40 -c 0 -i 68 -a 0 -x {1.0 0.0 6 ------- null}
+ -t 0.60288 -s 0 -d 1 -p tcp -e 1040 -c 0 -i 84 -a 0 -x {0.0 1.0 13 ------- null}
+ -t 0.60288 -s 0 -d 1 -p tcp -e 1040 -c 0 -i 85 -a 0 -x {0.0 1.0 14 ------- null}
r -t 0.60288 -s 2 -d 0 -p ack -e 40 -c 0 -i 69 -a 0 -x {2.0 0.1 6 ------- null}
+ -t 0.60288 -s 0 -d 2 -p tcp -e 1040 -c 0 -i 86 -a 0 -x {0.1 2.0 13 ------- null}
+ -t 0.60288 -s 0 -d 2 -p tcp -e 1040 -c 0 -i 87 -a 0 -x {0.1 2.0 14 ------- null}
r -t 0.60288 -s 3 -d 0 -p ack -e 40 -c 0 -i 70 -a 0 -x {3.0 0.2 6 ------- null}
+ -t 0.60288 -s 0 -d 3 -p tcp -e 1040 -c 0 -i 88 -a 0 -x {0.2 3.0 13 ------- null}
+ -t 0.60288 -s 0 -d 3 -p tcp -e 1040 -c 0 -i 89 -a 0 -x {0.2 3.0 14 ------- null}
r -t 0.60288 -s 4 -d 0 -p ack -e 40 -c 0 -i 71 -a 0 -x {4.0 0.3 6 ------- null}
+ -t 0.60288 -s 0 -d 4 -p tcp -e 1040 -c 0 -i 90 -a 0 -x {0.3 4.0 13 ------- null}
+ -t 0.60288 -s 0 -d 4 -p tcp -e 1040 -c 0 -i 91 -a 0 -x {0.3 4.0 14 ------- null}
- -t 0.60752 -s 0 -d 1 -p tcp -e 1040 -c 0 -i 61 -a 0 -x {0.0 1.0 10 ------- null}
h -t 0.60752 -s 0 -d 1 -p tcp -e 1040 -c 0 -i 61 -a 0 -x {0.0 1.0 -1 ------- null}
- -t 0.60752 -s 0 -d 2 -p tcp -e 1040 -c 0 -i 63 -a 0 -x {0.1 2.0 10 ------- null}
h -t 0.60752 -s 0 -d 2 -p tcp -e 1040 -c 0 -i 63 -a 0 -x {0.1 2.0 -1 ------- null}
- -t 0.60752 -s 0 -d 3 -p tcp -e 1040 -c 0 -i 65 -a 0 -x {0.2 3.0 10 ------- null}
h -t 0.60752 -s 0 -d 3 -p tcp -e 1040 -c 0 -i 65 -a 0 -x {0.2 3.0 -1 ------- null}
- -t 0.60752 -s 0 -d 4 -p tcp -e 1040 -c 0 -i 67 -a 0 -x {0.3 4.0 10 ------- null}
h -t 0.60752 -s 0 -d 4 -p tcp -e 1040 -c 0 -i 67 -a 0 -x {0.3 4.0 -1 ------- null}
r -t 0.6092 -s 0 -d 1 -p tcp -e 1040 -c 0 -i 49 -a 0 -x {0.0 1.0 8 ------- null}
+ -t 0.6092 -s 1 -d 0 -p ack -e 40 -c 0 -i 92 -a 0 -x {1.0 0.0 8 ------- null}
- -t 0.6092 -s 1 -d 0 -p ack -e 40 -c 0 -i 92 -a 0 -x {1.0 0.0 8 ------- null}
h -t 0.6092 -s 1 -d 0 -p ack -e 40 -c 0 -i 92 -a 0 -x {1.0 0.0 -1 ------- null}
r -t 0.6092 -s 0 -d 2 -p tcp -e 1040 -c 0 -i 51 -a 0 -x {0.1 2.0 8 ------- null}
+ -t 0.6092 -s 2 -d 0 -p ack -e 40 -c 0 -i 93 -a 0 -x {2.0 0.1 8 ------- null}
- -t 0.6092 -s 2 -d 0 -p ack -e 40 -c 0 -i 93 -a 0 -x {2.0 0.1 8 ------- null}
h -t 0.6092 -s 2 -d 0 -p ack -e 40 -c 0 -i 93 -a 0 -x {2.0 0.1 -1 ------- null}
r -t 0.6092 -s 0 -d 3 -p tcp -e 1040 -c 0 -i 53 -a 0 -x {0.2 3.0 8 ------- null}
+ -t 0.6092 -s 3 -d 0 -p ack -e 40 -c 0 -i 94 -a 0 -x {3.0 0.2 8 ------- null}
- -t 0.6092 -s 3 -d 0 -p ack -e 40 -c 0 -i 94 -a 0 -x {3.0 0.2 8 ------- null}
h -t 0.6092 -s 3 -d 0 -p ack -e 40 -c 0 -i 94 -a 0 -x {3.0 0.2 -1 ------- null}
r -t 0.6092 -s 0 -d 4 -p tcp -e 1040 -c 0 -i 55 -a 0 -x {0.3 4.0 8 ------- null}
+ -t 0.6092 -s 4 -d 0 -p ack -e 40 -c 0 -i 95 -a 0 -x {4.0 0.3 8 ------- null}
- -t 0.6092 -s 4 -d 0 -p ack -e 40 -c 0 -i 95 -a 0 -x {4.0 0.3 8 ------- null}
h -t 0.6092 -s 4 -d 0 -p ack -e 40 -c 0 -i 95 -a 0 -x {4.0 0.3 -1 ------- null}
r -t 0.6112 -s 1 -d 0 -p ack -e 40 -c 0 -i 80 -a 0 -x {1.0 0.0 7 ------- null}
+ -t 0.6112 -s 0 -d 1 -p tcp -e 1040 -c 0 -i 96 -a 0 -x {0.0 1.0 15 ------- null}
+ -t 0.6112 -s 0 -d 1 -p tcp -e 1040 -c 0 -i 97 -a 0 -x {0.0 1.0 16 ------- null}
r -t 0.6112 -s 2 -d 0 -p ack -e 40 -c 0 -i 81 -a 0 -x {2.0 0.1 7 ------- null}
+ -t 0.6112 -s 0 -d 2 -p tcp -e 1040 -c 0 -i 98 -a 0 -x {0.1 2.0 15 ------- null}
+ -t 0.6112 -s 0 -d 2 -p tcp -e 1040 -c 0 -i 99 -a 0 -x {0.1 2.0 16 ------- null}
r -t 0.6112 -s 3 -d 0 -p ack -e 40 -c 0 -i 82 -a 0 -x {3.0 0.2 7 ------- null}
+ -t 0.6112 -s 0 -d 3 -p tcp -e 1040 -c 0 -i 100 -a 0 -x {0.2 3.0 15 ------- null}
+ -t 0.6112 -s 0 -d 3 -p tcp -e 1040 -c 0 -i 101 -a 0 -x {0.2 3.0 16 ------- null}
r -t 0.6112 -s 4 -d 0 -p ack -e 40 -c 0 -i 83 -a 0 -x {4.0 0.3 7 ------- null}
+ -t 0.6112 -s 0 -d 4 -p tcp -e 1040 -c 0 -i 102 -a 0 -x {0.3 4.0 15 ------- null}
+ -t 0.6112 -s 0 -d 4 -p tcp -e 1040 -c 0 -i 103 -a 0 -x {0.3 4.0 16 ------- null}
- -t 0.61584 -s 0 -d 1 -p tcp -e 1040 -c 0 -i 72 -a 0 -x {0.0 1.0 11 ------- null}
h -t 0.61584 -s 0 -d 1 -p tcp -e 1040 -c 0 -i 72 -a 0 -x {0.0 1.0 -1 ------- null}
- -t 0.61584 -s 0 -d 2 -p tcp -e 1040 -c 0 -i 74 -a 0 -x {0.1 2.0 11 ------- null}
h -t 0.61584 -s 0 -d 2 -p tcp -e 1040 -c 0 -i 74 -a 0 -x {0.1 2.0 -1 ------- null}
- -t 0.61584 -s 0 -d 3 -p tcp -e 1040 -c 0 -i 76 -a 0 -x {0.2 3.0 11 ------- null}
h -t 0.61584 -s 0 -d 3 -p tcp -e 1040 -c 0 -i 76 -a 0 -x {0.2 3.0 -1 ------- null}
- -t 0.61584 -s 0 -d 4 -p tcp -e 1040 -c 0 -i 78 -a 0 -x {0.3 4.0 11 ------- null}
h -t 0.61584 -s 0 -d 4 -p tcp -e 1040 -c 0 -i 78 -a 0 -x {0.3 4.0 -1 ------- null}
r -t 0.61752 -s 0 -d 1 -p tcp -e 1040 -c 0 -i 60 -a 0 -x {0.0 1.0 9 ------- null}
+ -t 0.61752 -s 1 -d 0 -p ack -e 40 -c 0 -i 104 -a 0 -x {1.0 0.0 9 ------- null}
- -t 0.61752 -s 1 -d 0 -p ack -e 40 -c 0 -i 104 -a 0 -x {1.0 0.0 9 ------- null}
h -t 0.61752 -s 1 -d 0 -p ack -e 40 -c 0 -i 104 -a 0 -x {1.0 0.0 -1 ------- null}
r -t 0.61752 -s 0 -d 2 -p tcp -e 1040 -c 0 -i 62 -a 0 -x {0.1 2.0 9 ------- null}
+ -t 0.61752 -s 2 -d 0 -p ack -e 40 -c 0 -i 105 -a 0 -x {2.0 0.1 9 ------- null}
- -t 0.61752 -s 2 -d 0 -p ack -e 40 -c 0 -i 105 -a 0 -x {2.0 0.1 9 ------- null}
h -t 0.61752 -s 2 -d 0 -p ack -e 40 -c 0 -i 105 -a 0 -x {2.0 0.1 -1 ------- null}
r -t 0.61752 -s 0 -d 3 -p tcp -e 1040 -c 0 -i 64 -a 0 -x {0.2 3.0 9 ------- null}
+ -t 0.61752 -s 3 -d 0 -p ack -e 40 -c 0 -i 106 -a 0 -x {3.0 0.2 9 ------- null}
- -t 0.61752 -s 3 -d 0 -p ack -e 40 -c 0 -i 106 -a 0 -x {3.0 0.2 9 ------- null}
h -t 0.61752 -s 3 -d 0 -p ack -e 40 -c 0 -i 106 -a 0 -x {3.0 0.2 -1 ------- null}
r -t 0.61752 -s 0 -d 4 -p tcp -e 1040 -c 0 -i 66 -a 0 -x {0.3 4.0 9 ------- null}
+ -t 0.61752 -s 4 -d 0 -p ack -e 40 -c 0 -i 107 -a 0 -x {4.0 0.3 9 ------- null}
- -t 0.61752 -s 4 -d 0 -p ack -e 40 -c 0 -i 107 -a 0 -x {4.0 0.3 9 ------- null}
h -t 0.61752 -s 4 -d 0 -p ack -e 40 -c 0 -i 107 -a 0 -x {4.0 0.3 -1 ------- null}
r -t 0.61952 -s 1 -d 0 -p ack -e 40 -c 0 -i 92 -a 0 -x {1.0 0.0 8 ------- null}
+ -t 0.61952 -s 0 -d 1 -p tcp -e 1040 -c 0 -i 108 -a 0 -x {0.0 1.0 17 ------- null}
+ -t 0.61952 -s 0 -d 1 -p tcp -e 1040 -c 0 -i 109 -a 0 -x {0.0 1.0 18 ------- null}
r -t 0.61952 -s 2 -d 0 -p ack -e 40 -c 0 -i 93 -a 0 -x {2.0 0.1 8 ------- null}
+ -t 0.61952 -s 0 -d 2 -p tcp -e 1040 -c 0 -i 110 -a 0 -x {0.1 2.0 17 ------- null}
+ -t 0.61952 -s 0 -d 2 -p tcp -e 1040 -c 0 -i 111 -a 0 -x {0.1 2.0 18 ------- null}
r -t 0.61952 -s 3 -d 0 -p ack -e 40 -c 0 -i 94 -a 0 -x {3.0 0.2 8 ------- null}